ITEM: TIMESTEP
0
ITEM: NUMBER OF ATOMS
1200
ITEM: BOX BOUNDS pp pp pp
0.0000000000000000e+00 3.5856859999999998e+01
0.0000000000000000e+00 3.5856859999999998e+01
-1.0000000000000001e-01 1.0000000000000001e-01
ITEM: ATOMS id type xs ys zs
33 2 0.0162792 0.0138453 0.5
1125 3 0.014684 0.0353342 0.5
3 1 0.045699 0.0259974 0.5
4 1 0.0779089 0.00924391 0.5
35 2 0.113573 0.0295254 0.5
1049 3 0.129436 0.0172296 0.5
1050 4 0.142973 0.0307668 0.5
875 1 0.158168 0.00571289 0.5
6 1 0.171095 0.0309742 0.5
8 1 0.192925 0.011632 0.5
39 1 0.223657 0.0180446 0.5
1087 3 0.273473 0.00409162 0.5
38 2 0.251921 0.0320271 0.5
40 2 0.292713 0.00645268 0.5
69 1 0.291636 0.036026 0.5
10 2 0.32256 0.0057358 0.5
1127 3 0.32115 0.0241549 0.5
1128 4 0.336068 0.036627 0.5
72 1 0.351978 0.00894758 0.5
1004 4 0.390117 0.00916958 0.5
102 1 0.371218 0.0331599 0.5
970 4 0.421674 0.0209742 0.5
969 3 0.414132 0.0356947 0.5
14 1 0.451714 0.0146271 0.5
15 1 0.483295 0.0148939 0.5
17 1 0.516163 0.0098586 0.5
47 1 0.546297 0.0076096 0.5
48 1 0.576104 0.00762904 0.5
78 1 0.565039 0.0361219 0.5
18 1 0.605749 0.0120166 0.5
49 1 0.632073 0.036148 0.5
20 1 0.646395 0.00872964 0.5
51 1 0.673207 0.0251113 0.5
23 1 0.714156 0.0107648 0.5
52 1 0.700464 0.0373861 0.5
1119 3 0.742865 0.00563698 0.5
24 2 0.757143 0.0162996 0.5
83 1 0.731279 0.0346297 0.5
55 1 0.79221 0.0222865 0.5
56 1 0.821843 0.0171273 0.5
27 1 0.852886 0.0120149 0.5
57 1 0.90385 0.000900714 0.5
59 1 0.90878 0.0334141 0.5
88 1 0.882934 0.021459 0.5
31 1 0.959485 0.0302267 0.5
60 1 0.929388 0.0145658 0.5
899 1 0.957695 0.000527756 0.5
1177 3 0.984151 0.00855391 0.5
1178 4 0.988664 0.0220704 0.5
62 1 0.0233614 0.0633826 0.5
1137 3 0.0744981 0.0616993 0.5
63 2 0.0557373 0.0564706 0.5
1138 4 0.0866267 0.0434911 0.5
34 1 0.105866 0.0744057 0.5
948 4 0.132273 0.0587929 0.5
947 3 0.142245 0.0713131 0.5
7 1 0.199628 0.0422295 0.5
37 1 0.171697 0.0609118 0.5
36 1 0.200731 0.0734336 0.5
1078 4 0.2273 0.0637943 0.5
1077 3 0.237124 0.0483539 0.5
98 1 0.268778 0.0566604 0.5
70 1 0.311723 0.057875 0.5
100 2 0.286671 0.0793409 0.5
71 1 0.344364 0.0675754 0.5
41 1 0.384382 0.0662587 0.5
42 2 0.401597 0.0416562 0.5
73 1 0.414932 0.069128 0.5
43 1 0.442433 0.0422387 0.5
44 1 0.469565 0.041872 0.5
74 1 0.446589 0.0703393 0.5
45 1 0.484532 0.0732825 0.5
46 1 0.502011 0.0430757 0.5
77 1 0.533116 0.0414343 0.5
107 1 0.546855 0.0667453 0.5
79 1 0.594853 0.0410406 0.5
1134 4 0.576288 0.0687398 0.5
50 1 0.61846 0.0631506 0.5
80 1 0.649866 0.0611308 0.5
22 1 0.680046 0.0649077 0.5
82 2 0.712088 0.0650724 0.5
53 1 0.758708 0.046741 0.5
1047 3 0.72929 0.065282 0.5
1048 4 0.74622 0.0742194 0.5
54 1 0.790713 0.0522372 0.5
994 4 0.820339 0.0473498 0.5
993 3 0.815629 0.0689117 0.5
86 2 0.830037 0.077294 0.5
26 1 0.849793 0.0445338 0.5
87 1 0.858523 0.074073 0.5
89 1 0.885588 0.0519173 0.5
119 1 0.913958 0.0655577 0.5
90 1 0.934718 0.04646 0.5
1126 4 0.995706 0.0501495 0.5
61 1 0.968324 0.0690014 0.5
92 1 0.0214113 0.0937245 0.5
123 1 0.0330723 0.119709 0.5
93 1 0.056385 0.0886307 0.5
94 1 0.0647054 0.118493 0.5
64 1 0.0911213 0.0987465 0.5
95 1 0.119314 0.113165 0.5
65 2 0.135305 0.0900216 0.5
96 1 0.14917 0.11859 0.5
66 1 0.165274 0.0935458 0.5
67 1 0.195864 0.103784 0.5
68 1 0.228175 0.0939951 0.5
99 1 0.257831 0.0896097 0.5
101 1 0.318887 0.0894309 0.5
1141 3 0.287681 0.0983228 0.5
1142 4 0.301564 0.111112 0.5
982 4 0.339923 0.108081 0.5
1158 4 0.362166 0.087888 0.5
1157 3 0.370521 0.106109 0.5
104 1 0.399553 0.0953319 0.5
134 1 0.429491 0.0938945 0.5
75 1 0.464476 0.0977531 0.5
106 1 0.503492 0.104788 0.5
76 1 0.520307 0.0811295 0.5
108 1 0.553885 0.095076 0.5
137 1 0.530547 0.113095 0.5
1133 3 0.592986 0.08208 0.5
109 2 0.581271 0.101262 0.5
110 1 0.634942 0.0882226 0.5
140 1 0.609282 0.10618 0.5
81 1 0.663721 0.0937575 0.5
111 1 0.640099 0.116579 0.5
112 1 0.692224 0.0951465 0.5
113 1 0.726094 0.0952512 0.5
144 1 0.754848 0.107833 0.5
84 1 0.773943 0.0810227 0.5
174 1 0.782835 0.115296 0.5
998 4 0.829491 0.114839 0.5
114 1 0.80334 0.0958745 0.5
117 1 0.864161 0.10491 0.5
118 1 0.887928 0.0865168 0.5
149 1 0.918118 0.100722 0.5
178 1 0.895663 0.11858 0.5
120 1 0.940958 0.0803873 0.5
91 1 0.994617 0.0836109 0.5
122 1 0.998906 0.114416 0.5
150 1 0.969781 0.100491 0.5
154 1 0.0264702 0.148774 0.5
124 1 0.0577258 0.148156 0.5
125 2 0.0966614 0.130982 0.5
975 3 0.0887448 0.148942 0.5
126 1 0.152636 0.147742 0.5
155 1 0.124261 0.144117 0.5
97 1 0.177768 0.126839 0.5
906 4 0.238463 0.12313 0.5
128 1 0.210135 0.133761 0.5
905 3 0.238577 0.146351 0.5
129 2 0.25731 0.151472 0.5
130 1 0.271082 0.122271 0.5
160 1 0.287204 0.151247 0.5
161 1 0.312616 0.138894 0.5
131 2 0.359193 0.13297 0.5
981 3 0.339723 0.125237 0.5
132 1 0.338674 0.155762 0.5
103 2 0.387548 0.121841 0.5
1161 3 0.388887 0.153861 0.5
1172 4 0.417794 0.124353 0.5
1171 3 0.433814 0.139471 0.5
1162 4 0.407311 0.157976 0.5
164 2 0.446899 0.122664 0.5
165 1 0.461065 0.150986 0.5
105 1 0.484384 0.12782 0.5
135 1 0.515128 0.137189 0.5
195 1 0.494704 0.157403 0.5
136 1 0.545006 0.148831 0.5
138 1 0.558075 0.124025 0.5
1132 4 0.588435 0.129924 0.5
1131 3 0.587697 0.148696 0.5
139 1 0.617352 0.134322 0.5
141 1 0.675382 0.122888 0.5
171 1 0.652271 0.142988 0.5
142 1 0.706199 0.124869 0.5
143 1 0.718507 0.157346 0.5
172 1 0.682944 0.15224 0.5
980 4 0.737848 0.131053 0.5
979 3 0.748332 0.144664 0.5
115 1 0.776834 0.15188 0.5
85 1 0.805247 0.137823 0.5
116 2 0.831174 0.146426 0.5
997 3 0.844273 0.129165 0.5
147 1 0.870983 0.134071 0.5
148 1 0.919728 0.138867 0.5
179 1 0.950482 0.152701 0.5
180 1 0.94412 0.120103 0.5
121 1 0.971464 0.132601 0.5
153 1 0.99853 0.145701 0.5
152 1 0.0353897 0.17596 0.5
181 1 0.00669013 0.177502 0.5
183 1 0.066765 0.176952 0.5
976 4 0.101517 0.163993 0.5
184 1 0.0903347 0.194645 0.5
127 2 0.134593 0.174372 0.5
1033 3 0.154212 0.180362 0.5
1034 4 0.151127 0.19979 0.5
996 4 0.177549 0.161808 0.5
995 3 0.19808 0.166224 0.5
187 1 0.180773 0.1917 0.5
960 4 0.211197 0.196507 0.5
959 3 0.235168 0.193925 0.5
157 2 0.218012 0.163448 0.5
159 2 0.247881 0.178169 0.5
189 1 0.276892 0.186696 0.5
191 1 0.309496 0.169332 0.5
930 4 0.35331 0.186004 0.5
929 3 0.339411 0.198649 0.5
133 2 0.371232 0.160783 0.5
1107 3 0.384035 0.194723 0.5
162 2 0.400337 0.187151 0.5
193 1 0.446499 0.197897 0.5
194 1 0.440184 0.169334 0.5
225 1 0.473938 0.18266 0.5
197 1 0.501721 0.190743 0.5
166 1 0.525053 0.171852 0.5
167 1 0.553284 0.182324 0.5
168 2 0.571113 0.161855 0.5
198 1 0.582047 0.192941 0.5
169 1 0.603579 0.170643 0.5
1094 4 0.619375 0.196608 0.5
170 1 0.641986 0.171933 0.5
1116 4 0.666867 0.190437 0.5
202 1 0.697521 0.181151 0.5
173 2 0.748911 0.164013 0.5
203 1 0.727888 0.183047 0.5
1189 3 0.763185 0.189434 0.5
175 2 0.78277 0.182528 0.5
145 1 0.8095 0.16684 0.5
146 1 0.836734 0.175568 0.5
1164 4 0.813598 0.19568 0.5
177 1 0.861242 0.161851 0.5
206 1 0.871759 0.188932 0.5
207 1 0.898369 0.196847 0.5
208 1 0.889668 0.165918 0.5
209 1 0.923607 0.171893 0.5
1006 4 0.953399 0.184497 0.5
151 2 0.976949 0.165629 0.5
1005 3 0.971844 0.184151 0.5
182 1 0.0179308 0.207876 0.5
270 1 0.00628922 0.234546 0.5
212 1 0.0466487 0.201649 0.5
213 1 0.0728495 0.216964 0.5
185 1 0.100198 0.22448 0.5
156 1 0.121125 0.202296 0.5
216 1 0.142095 0.228495 0.5
186 1 0.168289 0.220464 0.5
188 1 0.195106 0.227636 0.5
218 1 0.223869 0.224699 0.5
158 1 0.253031 0.219421 0.5
190 1 0.309545 0.206729 0.5
219 1 0.281622 0.217814 0.5
221 1 0.306199 0.236562 0.5
192 2 0.358577 0.213132 0.5
280 1 0.332506 0.230097 0.5
1108 4 0.390706 0.214742 0.5
163 1 0.419651 0.205586 0.5
223 1 0.412297 0.2367 0.5
196 1 0.475765 0.209381 0.5
224 1 0.444387 0.236692 0.5
227 1 0.505721 0.222901 0.5
199 1 0.559697 0.213759 0.5
228 1 0.531376 0.201001 0.5
258 1 0.53313 0.233075 0.5
230 2 0.593735 0.219701 0.5
1093 3 0.616974 0.219818 0.5
1115 3 0.650459 0.202591 0.5
201 2 0.656376 0.221082 0.5
232 2 0.716327 0.21444 0.5
923 3 0.693709 0.210872 0.5
924 4 0.683154 0.228632 0.5
1190 4 0.750349 0.205214 0.5
204 1 0.761701 0.235237 0.5
205 2 0.787344 0.212677 0.5
1163 3 0.806598 0.211419 0.5
965 3 0.837942 0.219918 0.5
176 2 0.846417 0.205087 0.5
966 4 0.846618 0.23536 0.5
237 1 0.875054 0.219915 0.5
911 3 0.912403 0.232903 0.5
210 1 0.957055 0.215517 0.5
239 1 0.925186 0.205915 0.5
912 4 0.934326 0.235518 0.5
211 1 0.988997 0.206999 0.5
240 2 0.975372 0.239975 0.5
241 1 0.0376242 0.241645 0.5
302 1 0.0183415 0.262717 0.5
242 1 0.0489491 0.269035 0.5
243 1 0.0632003 0.245599 0.5
214 1 0.119881 0.250762 0.5
1191 3 0.0855977 0.264843 0.5
245 2 0.104461 0.275678 0.5
246 1 0.147143 0.25802 0.5
217 1 0.176599 0.250216 0.5
247 2 0.208418 0.255507 0.5
248 1 0.237246 0.25026 0.5
1079 3 0.200051 0.273841 0.5
249 1 0.266906 0.24851 0.5
279 1 0.264747 0.278339 0.5
220 1 0.292506 0.26277 0.5
250 1 0.324386 0.261055 0.5
251 1 0.355789 0.252349 0.5
281 1 0.351735 0.278321 0.5
222 1 0.38301 0.245808 0.5
252 1 0.406528 0.266764 0.5
253 1 0.43479 0.270107 0.5
254 1 0.468992 0.273159 0.5
226 1 0.508612 0.252211 0.5
255 1 0.480083 0.24541 0.5
257 2 0.534177 0.27098 0.5
1021 3 0.551455 0.271964 0.5
229 1 0.564091 0.242837 0.5
259 1 0.581737 0.268716 0.5
200 1 0.635449 0.249996 0.5
231 1 0.604989 0.2478 0.5
290 1 0.620219 0.274821 0.5
260 1 0.668543 0.254414 0.5
291 1 0.651768 0.279828 0.5
233 2 0.702383 0.254147 0.5
1041 3 0.690279 0.272853 0.5
234 1 0.731118 0.241566 0.5
262 2 0.727546 0.276661 0.5
263 1 0.754906 0.263259 0.5
235 1 0.787404 0.243232 0.5
264 1 0.782212 0.273879 0.5
265 1 0.818129 0.245596 0.5
295 1 0.813718 0.277074 0.5
236 1 0.87243 0.253189 0.5
266 1 0.841168 0.2651 0.5
238 2 0.899663 0.243473 0.5
267 1 0.896633 0.272041 0.5
269 1 0.92891 0.265167 0.5
967 3 0.962497 0.256386 0.5
968 4 0.960464 0.273394 0.5
272 1 0.990262 0.267057 0.5
244 1 0.0338098 0.298321 0.5
273 1 0.00337988 0.291888 0.5
1192 4 0.0755128 0.285219 0.5
303 1 0.0605469 0.313224 0.5
274 1 0.107073 0.305551 0.5
215 1 0.130928 0.282098 0.5
275 2 0.156656 0.315603 0.5
1035 3 0.172079 0.305517 0.5
1036 4 0.170567 0.284814 0.5
277 1 0.230722 0.287888 0.5
1080 4 0.201445 0.296518 0.5
308 1 0.224982 0.318296 0.5
278 1 0.253626 0.307823 0.5
940 4 0.287933 0.293784 0.5
1140 4 0.318146 0.290844 0.5
939 3 0.290299 0.313748 0.5
1139 3 0.332189 0.302505 0.5
311 2 0.352496 0.314533 0.5
282 1 0.381009 0.285403 0.5
314 1 0.386624 0.31953 0.5
283 1 0.409624 0.299227 0.5
284 2 0.439746 0.299523 0.5
1117 3 0.456232 0.309415 0.5
1118 4 0.474851 0.300024 0.5
256 1 0.508081 0.28386 0.5
286 1 0.502739 0.314299 0.5
287 1 0.533394 0.308862 0.5
1022 4 0.558181 0.292482 0.5
289 1 0.575332 0.319714 0.5
319 1 0.592724 0.297987 0.5
320 1 0.630663 0.303008 0.5
261 1 0.659605 0.310226 0.5
1042 4 0.682073 0.288351 0.5
292 1 0.711561 0.302132 0.5
321 1 0.688394 0.316791 0.5
1027 3 0.742115 0.289063 0.5
1028 4 0.758525 0.300748 0.5
1045 3 0.78669 0.31431 0.5
294 2 0.802438 0.303552 0.5
296 1 0.836996 0.293759 0.5
297 1 0.864944 0.285024 0.5
268 1 0.918577 0.292596 0.5
328 2 0.888619 0.30109 0.5
983 3 0.886252 0.318862 0.5
298 1 0.928078 0.319784 0.5
299 1 0.945102 0.297689 0.5
271 1 0.975208 0.299893 0.5
920 4 0.0335146 0.329016 0.5
919 3 0.021157 0.347295 0.5
1008 4 0.0614848 0.351307 0.5
334 1 0.0879025 0.330977 0.5
335 1 0.109567 0.349965 0.5
304 1 0.130176 0.326879 0.5
276 1 0.196415 0.325714 0.5
305 1 0.167804 0.340328 0.5
306 2 0.195799 0.3547 0.5
1167 3 0.214348 0.350549 0.5
309 2 0.249726 0.336766 0.5
1013 3 0.252221 0.355373 0.5
339 2 0.276438 0.327265 0.5
310 2 0.303869 0.341127 0.5
1101 3 0.292196 0.357777 0.5
341 1 0.337353 0.341123 0.5
312 1 0.365798 0.341761 0.5
313 1 0.399014 0.345693 0.5
315 1 0.433366 0.328521 0.5
285 1 0.475181 0.331094 0.5
345 1 0.45347 0.349265 0.5
963 3 0.498284 0.348786 0.5
317 2 0.517159 0.341401 0.5
288 1 0.5496 0.334465 0.5
318 1 0.583905 0.347823 0.5
349 2 0.605143 0.327866 0.5
933 3 0.624564 0.333397 0.5
934 4 0.638798 0.337586 0.5
379 2 0.612853 0.358949 0.5
351 1 0.668655 0.34057 0.5
322 1 0.703323 0.343477 0.5
293 1 0.733199 0.329264 0.5
324 1 0.762897 0.336624 0.5
1046 4 0.792828 0.335415 0.5
325 1 0.822427 0.324831 0.5
326 1 0.842765 0.350736 0.5
327 1 0.857004 0.322135 0.5
359 1 0.911985 0.347563 0.5
984 4 0.881518 0.339376 0.5
329 1 0.941794 0.348913 0.5
300 1 0.967325 0.331282 0.5
301 1 0.996796 0.323694 0.5
330 1 0.984061 0.353889 0.5
331 1 0.0176445 0.396388 0.5
332 2 0.0136611 0.363048 0.5
333 2 0.0396939 0.374732 0.5
1007 3 0.059422 0.372375 0.5
915 3 0.0748899 0.398341 0.5
364 1 0.0878685 0.366421 0.5
365 1 0.116986 0.379581 0.5
916 4 0.0957842 0.397301 0.5
336 1 0.139508 0.361097 0.5
366 1 0.147586 0.396216 0.5
307 1 0.174392 0.376265 0.5
1168 4 0.227072 0.367199 0.5
338 1 0.209296 0.396354 0.5
368 1 0.239941 0.392872 0.5
1014 4 0.262534 0.368455 0.5
1102 4 0.292008 0.379078 0.5
340 1 0.322288 0.367612 0.5
342 1 0.355762 0.370563 0.5
371 2 0.336497 0.395576 0.5
922 4 0.393908 0.37536 0.5
372 1 0.367035 0.396733 0.5
921 3 0.405049 0.391134 0.5
343 2 0.425979 0.397381 0.5
344 1 0.424908 0.36705 0.5
374 1 0.459892 0.382429 0.5
964 4 0.481538 0.360604 0.5
316 1 0.519518 0.371741 0.5
375 1 0.489358 0.388646 0.5
347 1 0.55377 0.366228 0.5
377 1 0.535738 0.397671 0.5
348 1 0.583916 0.373848 0.5
378 2 0.562315 0.395839 0.5
918 4 0.608683 0.391465 0.5
917 3 0.617559 0.376202 0.5
350 1 0.653365 0.368645 0.5
381 1 0.670782 0.391743 0.5
323 1 0.713328 0.371371 0.5
352 1 0.682645 0.36405 0.5
353 1 0.73291 0.394749 0.5
354 1 0.746501 0.363935 0.5
384 1 0.765022 0.390979 0.5
385 1 0.779458 0.362645 0.5
416 2 0.796718 0.394402 0.5
355 1 0.810848 0.362205 0.5
356 1 0.834495 0.387386 0.5
357 1 0.867959 0.366269 0.5
387 1 0.865112 0.396155 0.5
358 1 0.895587 0.379828 0.5
388 1 0.928675 0.373326 0.5
390 1 0.958145 0.37193 0.5
360 1 0.986522 0.380905 0.5
392 1 0.0217336 0.425728 0.5
362 1 0.0469356 0.404498 0.5
363 2 0.0766862 0.420917 0.5
393 1 0.0510906 0.436987 0.5
395 1 0.101191 0.436967 0.5
396 1 0.120122 0.413621 0.5
397 1 0.158048 0.423364 0.5
367 1 0.178062 0.404217 0.5
398 1 0.19795 0.424852 0.5
337 1 0.225533 0.422679 0.5
369 1 0.267303 0.400528 0.5
1040 4 0.259821 0.429988 0.5
370 1 0.297065 0.408205 0.5
399 2 0.287527 0.437987 0.5
1111 3 0.340323 0.411864 0.5
400 1 0.322262 0.432764 0.5
1112 4 0.35396 0.424718 0.5
403 1 0.382481 0.422012 0.5
373 1 0.410715 0.427111 0.5
376 2 0.474416 0.414868 0.5
1103 3 0.453467 0.410768 0.5
1104 4 0.443777 0.426275 0.5
346 1 0.508353 0.411931 0.5
406 1 0.496973 0.436749 0.5
1060 4 0.534268 0.427653 0.5
407 1 0.561992 0.427487 0.5
1061 3 0.57855 0.403531 0.5
1062 4 0.592447 0.422741 0.5
409 1 0.623865 0.429285 0.5
380 1 0.640731 0.401666 0.5
382 1 0.678472 0.419652 0.5
411 1 0.653246 0.43693 0.5
383 1 0.703856 0.403124 0.5
413 2 0.703962 0.43549 0.5
414 1 0.749341 0.419488 0.5
1085 3 0.720424 0.433957 0.5
444 1 0.778827 0.421601 0.5
954 4 0.815633 0.427442 0.5
953 3 0.811202 0.407857 0.5
386 1 0.844068 0.430017 0.5
417 1 0.890357 0.407477 0.5
419 2 0.880191 0.435252 0.5
1020 4 0.911967 0.428525 0.5
418 2 0.934574 0.407204 0.5
1019 3 0.929515 0.428679 0.5
361 1 0.989565 0.411272 0.5
389 1 0.963066 0.402024 0.5
391 1 0.966273 0.431039 0.5
422 1 0.0196546 0.456069 0.5
394 1 0.0765668 0.456825 0.5
423 1 0.0493516 0.470819 0.5
425 1 0.102391 0.47179 0.5
426 1 0.134311 0.442839 0.5
454 1 0.129944 0.478862 0.5
455 2 0.159475 0.478955 0.5
1123 3 0.15969 0.45625 0.5
1124 4 0.175727 0.444927 0.5
428 1 0.235567 0.479057 0.5
1165 3 0.200717 0.474312 0.5
1166 4 0.209703 0.456666 0.5
1039 3 0.270713 0.446793 0.5
429 1 0.240474 0.450785 0.5
430 1 0.27162 0.475766 0.5
461 1 0.309182 0.461211 0.5
401 1 0.345106 0.455791 0.5
432 1 0.374726 0.452509 0.5
402 1 0.402275 0.461734 0.5
404 1 0.433517 0.45162 0.5
405 1 0.469381 0.447185 0.5
435 1 0.453536 0.472077 0.5
436 1 0.507248 0.46532 0.5
1059 3 0.528957 0.445163 0.5
437 2 0.539389 0.456924 0.5
438 1 0.574145 0.458572 0.5
408 1 0.601396 0.455911 0.5
410 1 0.630193 0.457718 0.5
412 1 0.677784 0.453918 0.5
441 1 0.65149 0.476715 0.5
442 1 0.703706 0.466093 0.5
1086 4 0.732062 0.450731 0.5
445 1 0.792306 0.448691 0.5
1068 4 0.762559 0.446103 0.5
1067 3 0.761482 0.464083 0.5
475 2 0.779169 0.474354 0.5
446 1 0.819664 0.455418 0.5
1113 3 0.87863 0.454533 0.5
987 3 0.840448 0.478527 0.5
447 2 0.848315 0.461671 0.5
1114 4 0.874897 0.474478 0.5
449 1 0.90959 0.461745 0.5
1122 4 0.939167 0.455431 0.5
1121 3 0.951387 0.468278 0.5
420 2 0.96818 0.460196 0.5
421 1 0.99398 0.442302 0.5
450 2 0.988782 0.478366 0.5
453 1 0.0165779 0.48879 0.5
424 1 0.0733343 0.488097 0.5
1012 4 0.0455307 0.500809 0.5
1011 3 0.0606868 0.512373 0.5
483 2 0.0784999 0.516874 0.5
484 1 0.105379 0.504276 0.5
456 1 0.143308 0.505599 0.5
427 2 0.188472 0.487725 0.5
457 1 0.171894 0.509496 0.5
458 1 0.21514 0.50154 0.5
904 4 0.254712 0.506429 0.5
903 3 0.275139 0.511058 0.5
462 1 0.315431 0.513658 0.5
492 1 0.297659 0.487936 0.5
431 2 0.328892 0.485136 0.5
1029 3 0.349571 0.491096 0.5
1030 4 0.365503 0.481136 0.5
463 1 0.397178 0.491022 0.5
493 2 0.372095 0.510067 0.5
433 1 0.425807 0.48147 0.5
464 2 0.422723 0.510771 0.5
495 1 0.452377 0.505095 0.5
434 1 0.482215 0.481537 0.5
465 1 0.497155 0.508555 0.5
466 1 0.519958 0.491574 0.5
467 2 0.554772 0.482546 0.5
927 3 0.549535 0.50445 0.5
928 4 0.534692 0.515553 0.5
439 1 0.584799 0.485209 0.5
468 1 0.579683 0.511256 0.5
440 1 0.61484 0.48383 0.5
470 2 0.635458 0.508485 0.5
471 1 0.666535 0.507352 0.5
472 1 0.679698 0.481699 0.5
1024 4 0.703945 0.515143 0.5
443 2 0.755433 0.494805 0.5
1001 3 0.736954 0.481966 0.5
1002 4 0.721514 0.489228 0.5
503 1 0.734915 0.515118 0.5
505 1 0.789943 0.503894 0.5
415 1 0.813715 0.484788 0.5
506 1 0.82287 0.513893 0.5
988 4 0.848769 0.494103 0.5
477 1 0.879058 0.508854 0.5
448 1 0.906426 0.49013 0.5
1146 4 0.934539 0.493325 0.5
1145 3 0.929687 0.513231 0.5
1173 3 0.986674 0.496525 0.5
1174 4 0.976886 0.512467 0.5
451 1 0.0201899 0.522212 0.5
452 2 0.0338169 0.548699 0.5
1071 3 0.0164139 0.559537 0.5
482 1 0.0645008 0.542449 0.5
485 1 0.0948917 0.540072 0.5
486 1 0.152707 0.53539 0.5
515 1 0.122451 0.534923 0.5
487 2 0.196796 0.526393 0.5
517 1 0.175437 0.556423 0.5
459 1 0.231651 0.526815 0.5
488 1 0.235654 0.558101 0.5
941 3 0.203761 0.541758 0.5
942 4 0.206861 0.558634 0.5
489 1 0.259679 0.538602 0.5
490 1 0.279925 0.557444 0.5
460 2 0.287516 0.526188 0.5
491 1 0.310584 0.544681 0.5
1015 3 0.355839 0.520776 0.5
1016 4 0.340633 0.533701 0.5
1194 4 0.397548 0.525181 0.5
523 1 0.375558 0.547142 0.5
1193 3 0.415123 0.530155 0.5
524 2 0.405411 0.559435 0.5
494 1 0.442643 0.538325 0.5
1154 4 0.471643 0.527963 0.5
1153 3 0.470863 0.546477 0.5
496 1 0.51386 0.534878 0.5
526 2 0.487975 0.555109 0.5
527 1 0.537005 0.554732 0.5
499 1 0.561144 0.536672 0.5
500 1 0.590662 0.542817 0.5
469 1 0.610149 0.522077 0.5
530 1 0.629789 0.558015 0.5
1183 3 0.641929 0.526233 0.5
1184 4 0.653698 0.538414 0.5
504 1 0.716236 0.548349 0.5
1023 3 0.688544 0.530409 0.5
531 2 0.682732 0.552582 0.5
533 1 0.74504 0.542447 0.5
473 1 0.766458 0.523657 0.5
474 1 0.795242 0.533944 0.5
1058 4 0.775024 0.555776 0.5
535 1 0.820882 0.549179 0.5
476 1 0.875969 0.539279 0.5
478 1 0.85022 0.525521 0.5
536 2 0.848719 0.556687 0.5
479 1 0.904552 0.523711 0.5
507 1 0.89776 0.553938 0.5
508 1 0.925943 0.548136 0.5
510 2 0.948832 0.52059 0.5
952 4 0.953552 0.550231 0.5
480 2 0.99285 0.539907 0.5
951 3 0.975195 0.547797 0.5
541 1 0.0195434 0.589299 0.5
481 1 0.049078 0.57922 0.5
512 1 0.0788225 0.568182 0.5
513 1 0.108134 0.570415 0.5
514 1 0.138321 0.566559 0.5
545 1 0.134562 0.597378 0.5
516 1 0.165946 0.592931 0.5
547 1 0.194788 0.585155 0.5
518 1 0.224542 0.586299 0.5
519 2 0.256972 0.576516 0.5
1135 3 0.261653 0.59573 0.5
1051 3 0.307269 0.589449 0.5
521 2 0.31867 0.572768 0.5
1052 4 0.288995 0.582842 0.5
520 2 0.344726 0.591329 0.5
522 1 0.348422 0.56065 0.5
551 1 0.373793 0.576989 0.5
1098 4 0.404134 0.588082 0.5
943 3 0.42827 0.564447 0.5
554 1 0.431109 0.595354 0.5
944 4 0.447187 0.569204 0.5
525 1 0.511567 0.570417 0.5
586 1 0.480359 0.58444 0.5
557 1 0.545106 0.582549 0.5
497 1 0.572724 0.56772 0.5
528 1 0.575225 0.598443 0.5
498 1 0.604283 0.569884 0.5
529 1 0.60465 0.597329 0.5
560 2 0.637312 0.588331 0.5
501 1 0.659324 0.572855 0.5
561 2 0.668433 0.599525 0.5
532 1 0.690772 0.582206 0.5
502 1 0.722245 0.580372 0.5
562 1 0.751417 0.570413 0.5
564 1 0.758967 0.599115 0.5
565 2 0.783818 0.585508 0.5
1057 3 0.785587 0.565612 0.5
534 1 0.811546 0.575144 0.5
908 4 0.838682 0.592413 0.5
907 3 0.84913 0.577342 0.5
537 1 0.880195 0.576935 0.5
538 1 0.907463 0.582086 0.5
509 1 0.93921 0.575363 0.5
1072 4 0.998777 0.569256 0.5
511 1 0.990825 0.598691 0.5
540 1 0.969631 0.578586 0.5
571 1 0.0148416 0.622426 0.5
542 1 0.0422318 0.608639 0.5
543 1 0.0714764 0.60199 0.5
572 1 0.0613396 0.632447 0.5
544 1 0.101573 0.603677 0.5
574 1 0.0934728 0.63667 0.5
546 1 0.155433 0.622381 0.5
575 1 0.122819 0.626754 0.5
577 1 0.186185 0.615654 0.5
548 1 0.21363 0.611951 0.5
1136 4 0.248257 0.612361 0.5
579 1 0.271559 0.636902 0.5
550 1 0.286712 0.612692 0.5
580 1 0.302726 0.637012 0.5
971 3 0.334031 0.604647 0.5
972 4 0.331597 0.624363 0.5
552 1 0.38305 0.635962 0.5
1097 3 0.391812 0.60433 0.5
581 1 0.362358 0.617007 0.5
553 2 0.408248 0.620602 0.5
555 1 0.458583 0.604766 0.5
584 1 0.441232 0.631009 0.5
556 1 0.515528 0.601905 0.5
615 1 0.487162 0.613961 0.5
1099 3 0.53841 0.63179 0.5
1100 4 0.545786 0.615156 0.5
558 1 0.587523 0.622689 0.5
559 1 0.616895 0.625067 0.5
901 3 0.640767 0.609888 0.5
902 4 0.654312 0.625556 0.5
1159 3 0.683846 0.61516 0.5
1160 4 0.698072 0.614586 0.5
593 2 0.719428 0.637451 0.5
563 1 0.727864 0.607152 0.5
1152 4 0.751114 0.6279 0.5
595 1 0.781653 0.61995 0.5
566 1 0.810319 0.604714 0.5
625 1 0.80508 0.636449 0.5
567 1 0.866383 0.604705 0.5
596 1 0.84499 0.626415 0.5
597 1 0.875931 0.631867 0.5
568 1 0.897872 0.611329 0.5
569 1 0.929038 0.614251 0.5
600 1 0.950173 0.632577 0.5
539 1 0.962569 0.608355 0.5
570 1 0.986003 0.626575 0.5
630 1 0.00632441 0.652341 0.5
602 1 0.0470567 0.655377 0.5
604 2 0.0764733 0.662369 0.5
974 4 0.113653 0.663022 0.5
973 3 0.0934744 0.668909 0.5
576 1 0.143726 0.653449 0.5
605 1 0.159553 0.678101 0.5
606 2 0.176596 0.646914 0.5
1179 3 0.187334 0.662909 0.5
549 1 0.236538 0.646867 0.5
578 1 0.205666 0.641247 0.5
1180 4 0.206074 0.673259 0.5
609 1 0.259327 0.666713 0.5
610 1 0.286395 0.663675 0.5
611 1 0.3201 0.66062 0.5
612 1 0.351488 0.649876 0.5
582 1 0.382648 0.666084 0.5
583 1 0.416955 0.654488 0.5
613 1 0.469039 0.642108 0.5
614 1 0.451284 0.667307 0.5
585 1 0.484149 0.668074 0.5
616 1 0.498978 0.640587 0.5
1096 4 0.515079 0.677166 0.5
587 2 0.531168 0.649877 0.5
617 1 0.551439 0.667542 0.5
588 1 0.565748 0.643378 0.5
589 1 0.596367 0.654778 0.5
619 1 0.628542 0.649327 0.5
620 1 0.636716 0.677798 0.5
590 1 0.657352 0.656764 0.5
591 1 0.685557 0.646099 0.5
592 1 0.689921 0.674172 0.5
1151 3 0.742351 0.644199 0.5
622 1 0.720805 0.667789 0.5
623 1 0.750258 0.672833 0.5
594 1 0.774008 0.655229 0.5
624 1 0.801138 0.667167 0.5
1181 3 0.832074 0.672007 0.5
1182 4 0.831466 0.654009 0.5
627 1 0.864683 0.657793 0.5
598 1 0.890763 0.661192 0.5
599 1 0.916701 0.643608 0.5
628 1 0.914847 0.676729 0.5
629 1 0.940612 0.661354 0.5
660 1 0.97341 0.65244 0.5
632 1 0.0267157 0.688704 0.5
573 1 0.0585301 0.687716 0.5
603 1 0.0743169 0.711312 0.5
633 1 0.0444926 0.713552 0.5
663 1 0.10228 0.700343 0.5
634 1 0.128158 0.690011 0.5
635 1 0.15536 0.707698 0.5
636 1 0.182705 0.694244 0.5
607 1 0.211577 0.703439 0.5
608 1 0.232049 0.683195 0.5
638 1 0.258954 0.694572 0.5
977 3 0.308439 0.688193 0.5
978 4 0.315528 0.706767 0.5
639 2 0.288779 0.696236 0.5
641 1 0.342009 0.681733 0.5
642 1 0.348448 0.712535 0.5
1038 4 0.374378 0.700028 0.5
1037 3 0.393524 0.694411 0.5
643 2 0.408107 0.682681 0.5
644 1 0.437219 0.690919 0.5
1032 4 0.415322 0.715068 0.5
674 1 0.466466 0.697621 0.5
645 1 0.49351 0.69727 0.5
1185 3 0.516115 0.717491 0.5
1095 3 0.530735 0.687359 0.5
647 2 0.548293 0.69569 0.5
962 4 0.597988 0.712401 0.5
961 3 0.581255 0.702311 0.5
649 2 0.57524 0.680333 0.5
618 1 0.606794 0.68375 0.5
932 4 0.629559 0.70862 0.5
621 1 0.664049 0.686725 0.5
1175 3 0.67767 0.71378 0.5
650 2 0.656831 0.715544 0.5
1176 4 0.693168 0.704293 0.5
653 1 0.724418 0.699826 0.5
682 1 0.754204 0.702786 0.5
654 1 0.778351 0.688115 0.5
626 2 0.823382 0.689596 0.5
655 1 0.80212 0.709963 0.5
656 1 0.851482 0.702215 0.5
657 1 0.878125 0.689031 0.5
658 1 0.902735 0.704455 0.5
659 1 0.931726 0.701836 0.5
601 1 0.998865 0.682083 0.5
631 2 0.985741 0.710264 0.5
1195 3 0.972954 0.696762 0.5
1196 4 0.960157 0.685773 0.5
662 1 0.0145208 0.729364 0.5
692 1 0.0123834 0.757315 0.5
722 1 0.0395907 0.747864 0.5
693 1 0.0692399 0.739642 0.5
695 1 0.100584 0.728268 0.5
664 1 0.131826 0.722081 0.5
665 1 0.120092 0.748818 0.5
666 1 0.1565 0.742186 0.5
637 1 0.181124 0.727379 0.5
668 1 0.212438 0.736463 0.5
728 1 0.237065 0.752876 0.5
669 1 0.241184 0.722818 0.5
670 2 0.27244 0.72269 0.5
697 1 0.267783 0.75144 0.5
1148 4 0.299703 0.744492 0.5
1147 3 0.289233 0.726832 0.5
640 1 0.329625 0.737879 0.5
671 1 0.360458 0.754795 0.5
672 1 0.374208 0.726169 0.5
703 2 0.392475 0.750032 0.5
1031 3 0.404225 0.730833 0.5
734 1 0.422651 0.754399 0.5
673 1 0.442211 0.723702 0.5
675 1 0.47054 0.728264 0.5
705 1 0.450429 0.751559 0.5
646 2 0.501462 0.727754 0.5
706 1 0.484792 0.755074 0.5
1186 4 0.530588 0.734053 0.5
677 1 0.556096 0.756115 0.5
648 1 0.560564 0.725028 0.5
678 1 0.581522 0.740836 0.5
931 3 0.626799 0.731017 0.5
679 2 0.611834 0.741954 0.5
651 1 0.665815 0.744777 0.5
709 1 0.640376 0.759712 0.5
652 1 0.712879 0.726635 0.5
681 1 0.696373 0.744938 0.5
683 1 0.756292 0.75677 0.5
712 1 0.725291 0.756389 0.5
713 1 0.741604 0.730156 0.5
684 1 0.775597 0.72638 0.5
685 1 0.82639 0.723086 0.5
686 1 0.828834 0.754435 0.5
715 1 0.803065 0.740131 0.5
687 1 0.877397 0.720127 0.5
717 1 0.852232 0.737801 0.5
718 1 0.879779 0.753765 0.5
688 1 0.902995 0.739176 0.5
689 1 0.931275 0.741904 0.5
690 1 0.958294 0.722909 0.5
720 1 0.95773 0.75369 0.5
661 1 0.984001 0.739643 0.5
1089 3 0.00902183 0.796815 0.5
752 1 0.0341236 0.778422 0.5
694 1 0.0626937 0.771028 0.5
724 1 0.0931735 0.762889 0.5
725 1 0.117032 0.780971 0.5
696 1 0.149964 0.768725 0.5
755 1 0.140671 0.796463 0.5
726 2 0.171552 0.788064 0.5
727 1 0.182691 0.760835 0.5
1055 3 0.190124 0.791851 0.5
667 1 0.211646 0.769201 0.5
758 1 0.235028 0.787752 0.5
698 1 0.261366 0.782239 0.5
699 1 0.288408 0.773183 0.5
731 1 0.313085 0.791307 0.5
700 1 0.322817 0.763802 0.5
701 1 0.345061 0.782502 0.5
702 1 0.374947 0.782212 0.5
704 1 0.40605 0.780589 0.5
733 1 0.435737 0.784388 0.5
735 1 0.465534 0.777268 0.5
737 1 0.506617 0.786429 0.5
676 1 0.52884 0.763588 0.5
707 1 0.537351 0.793538 0.5
708 2 0.570158 0.784216 0.5
1169 3 0.58511 0.772571 0.5
1170 4 0.606182 0.775001 0.5
710 1 0.628509 0.791341 0.5
680 1 0.657426 0.784593 0.5
741 1 0.679039 0.799379 0.5
711 1 0.684177 0.769798 0.5
742 1 0.710132 0.782003 0.5
743 1 0.740328 0.784279 0.5
714 2 0.786465 0.765505 0.5
1110 4 0.798724 0.796739 0.5
744 1 0.772376 0.790655 0.5
1109 3 0.801469 0.777035 0.5
746 1 0.827247 0.782658 0.5
716 1 0.856507 0.773889 0.5
748 1 0.881958 0.78694 0.5
778 1 0.904149 0.77091 0.5
719 1 0.93301 0.772735 0.5
691 1 0.987487 0.76721 0.5
721 2 0.990087 0.797384 0.5
750 1 0.961489 0.784481 0.5
1090 4 0.0201323 0.813291 0.5
723 2 0.0643871 0.801558 0.5
1129 3 0.0475486 0.805449 0.5
1130 4 0.0474979 0.825559 0.5
753 1 0.0938152 0.802199 0.5
754 1 0.117137 0.819958 0.5
1198 4 0.0822673 0.832686 0.5
756 2 0.15171 0.823713 0.5
1043 3 0.142025 0.838528 0.5
757 1 0.187551 0.824555 0.5
1056 4 0.208327 0.800805 0.5
759 1 0.218892 0.829095 0.5
729 1 0.278809 0.805123 0.5
730 1 0.277446 0.834307 0.5
760 1 0.248482 0.814609 0.5
761 1 0.307533 0.821452 0.5
762 2 0.336969 0.817858 0.5
1025 3 0.341934 0.837151 0.5
1092 4 0.389901 0.833022 0.5
732 2 0.363353 0.810543 0.5
1091 3 0.379521 0.813019 0.5
764 1 0.414649 0.807729 0.5
765 1 0.478519 0.804079 0.5
766 1 0.446977 0.811147 0.5
825 1 0.472136 0.83278 0.5
736 2 0.505426 0.820066 0.5
1063 3 0.505333 0.83951 0.5
738 1 0.535865 0.824189 0.5
926 4 0.563437 0.816476 0.5
925 3 0.563937 0.837492 0.5
799 1 0.592092 0.829967 0.5
739 1 0.604601 0.806318 0.5
910 4 0.619351 0.839306 0.5
909 3 0.62886 0.823066 0.5
770 2 0.645663 0.817087 0.5
1076 4 0.676642 0.831065 0.5
1075 3 0.696734 0.823629 0.5
772 2 0.710673 0.817542 0.5
774 2 0.74511 0.816673 0.5
958 4 0.782656 0.819157 0.5
957 3 0.763402 0.817656 0.5
745 1 0.812296 0.823388 0.5
776 1 0.839569 0.81118 0.5
747 1 0.865877 0.809378 0.5
807 1 0.858626 0.837366 0.5
777 1 0.89326 0.827905 0.5
779 1 0.907947 0.800184 0.5
749 1 0.937482 0.803549 0.5
809 1 0.939094 0.832432 0.5
751 1 0.99381 0.828378 0.5
780 1 0.964928 0.814016 0.5
782 1 0.0249101 0.842846 0.5
812 1 0.0282747 0.871376 0.5
1197 3 0.0785087 0.852715 0.5
783 2 0.0557619 0.853239 0.5
784 1 0.110106 0.849153 0.5
1084 4 0.0930353 0.879123 0.5
1044 4 0.142682 0.860978 0.5
785 2 0.18223 0.879261 0.5
786 1 0.169126 0.847523 0.5
787 1 0.200167 0.8535 0.5
817 1 0.224313 0.869142 0.5
818 1 0.247297 0.850204 0.5
789 1 0.281188 0.864626 0.5
790 1 0.313045 0.850369 0.5
792 1 0.336838 0.872882 0.5
1026 4 0.360471 0.847564 0.5
822 1 0.390022 0.861552 0.5
763 1 0.420092 0.842867 0.5
794 1 0.416459 0.872859 0.5
795 1 0.450027 0.854555 0.5
797 1 0.47023 0.875332 0.5
1064 4 0.493672 0.856667 0.5
796 1 0.51914 0.87437 0.5
767 1 0.536884 0.853539 0.5
769 2 0.568257 0.856296 0.5
829 1 0.597587 0.861264 0.5
800 1 0.625852 0.869173 0.5
740 1 0.64872 0.847222 0.5
801 1 0.655997 0.874683 0.5
771 1 0.685874 0.862895 0.5
802 1 0.711375 0.851999 0.5
773 1 0.741353 0.848403 0.5
834 2 0.734562 0.87534 0.5
1073 3 0.753147 0.875287 0.5
803 1 0.769415 0.847994 0.5
835 1 0.782346 0.874528 0.5
775 1 0.829444 0.848567 0.5
804 1 0.800552 0.850752 0.5
805 1 0.814644 0.876704 0.5
806 1 0.853217 0.866679 0.5
808 1 0.914809 0.848677 0.5
837 1 0.88243 0.857864 0.5
838 1 0.908296 0.879213 0.5
839 1 0.935807 0.874809 0.5
781 1 0.99744 0.859634 0.5
810 1 0.969876 0.843861 0.5
950 4 0.030086 0.90209 0.5
949 3 0.0165018 0.914926 0.5
813 2 0.0577792 0.886714 0.5
1083 3 0.0734674 0.889711 0.5
1200 4 0.0750502 0.918613 0.5